
Host: chem-mcdaniel-u01

Timers On : Sun Jan 24 20:59:03 2021
Timers Off: Sun Jan 24 20:59:04 2021

Wall Time:        0.81 seconds

                                                       Time (seconds)
Module                                       User      System        Wall        Calls
DFH: sparsity prep                  :      0.017u      0.000s      0.011w      1 calls
DFH: initialize()                   :      0.083u      0.000s      0.053w      1 calls
DFH: AO Construction                :      0.000u      0.000s      0.000w      1 calls
DFH: AO-Met. Contraction            :      0.000u      0.000s      0.000w      1 calls
HF: Form core H                     :      0.000u      0.000s      0.001w      1 calls
HF: Form S/X                        :      0.000u      0.000s      0.000w      1 calls
HF: Guess                           :      0.100u      0.000s      0.065w      1 calls
SAD Guess                           :      0.083u      0.000s      0.056w      1 calls
HF: Form G                          :      0.000u      0.000s      0.002w      3 calls
JK: D                               :      0.000u      0.000s      0.000w      3 calls
JK: USO2AO                          :      0.000u      0.000s      0.001w      3 calls
JK: JK                              :      0.000u      0.000s      0.001w      3 calls
DFH: compute_JK()                   :      0.000u      0.000s      0.001w      3 calls
DFH: Grabbing AOs                   :      0.000u      0.000s      0.000w      3 calls
DFH: compute_J                      :      0.000u      0.000s      0.000w      3 calls
DFH: compute_K                      :      0.000u      0.000s      0.001w      3 calls
JK: AO2USO                          :      0.000u      0.000s      0.000w      3 calls
HF: Form F                          :      0.000u      0.000s      0.000w      3 calls
HF: Form D                          :      0.000u      0.000s      0.000w      3 calls
HF: DIIS                            :      0.000u      0.000s      0.001w      2 calls
DIISManager::add_entry              :      0.000u      0.000s      0.000w      2 calls
DIISManager::extrapolate            :      0.000u      0.000s      0.000w      2 calls
bMatrix setup                       :      0.000u      0.000s      0.000w      2 calls
bMatrix pseudoinverse               :      0.000u      0.000s      0.000w      2 calls
New vector                          :      0.000u      0.000s      0.000w      2 calls
HF: Form C                          :      0.000u      0.000s      0.000w      2 calls
Grad: V T Perturb                   :      0.000u      0.000s      0.001w      1 calls
Grad: S                             :      0.000u      0.000s      0.000w      1 calls
Grad: JK                            :      0.117u      0.017s      0.088w      1 calls
JKGrad: Amn                         :      0.017u      0.000s      0.010w      1 calls
JKGrad: Awmn                        :      0.000u      0.000s      0.000w      1 calls
JKGrad: AB                          :      0.033u      0.000s      0.019w      1 calls
JKGrad: UV                          :      0.000u      0.000s      0.000w      1 calls
JKGrad: ABx                         :      0.017u      0.017s      0.024w      1 calls
JKGrad: Amnx                        :      0.033u      0.000s      0.021w      1 calls
Grad: XC                            :      0.000u      0.000s      0.000w      1 calls

--------------------------------------------------------------------------------------
DFH: sparsity prep                  :      0.017u      0.000s      0.011w      1 calls
DFH: initialize()                   :      0.083u      0.000s      0.053w      1 calls
| DFH: AO Construction              :      0.000u      0.000s      0.000w      1 calls
| DFH: AO-Met. Contraction          :      0.000u      0.000s      0.000w      1 calls
HF: Form core H                     :      0.000u      0.000s      0.001w      1 calls
HF: Form S/X                        :      0.000u      0.000s      0.000w      1 calls
HF: Guess                           :      0.100u      0.000s      0.065w      1 calls
| SAD Guess                         :      0.083u      0.000s      0.056w      1 calls
HF: Form G                          :      0.000u      0.000s      0.002w      3 calls
| JK: D                             :      0.000u      0.000s      0.000w      3 calls
| JK: USO2AO                        :      0.000u      0.000s      0.001w      3 calls
| JK: JK                            :      0.000u      0.000s      0.001w      3 calls
| | DFH: compute_JK()               :      0.000u      0.000s      0.001w      3 calls
| | | DFH: Grabbing AOs             :      0.000u      0.000s      0.000w      3 calls
| | | DFH: compute_J                :      0.000u      0.000s      0.000w      3 calls
| | | DFH: compute_K                :      0.000u      0.000s      0.001w      3 calls
| JK: AO2USO                        :      0.000u      0.000s      0.000w      3 calls
HF: Form F                          :      0.000u      0.000s      0.000w      3 calls
HF: Form D                          :      0.000u      0.000s      0.000w      3 calls
HF: DIIS                            :      0.000u      0.000s      0.001w      2 calls
| DIISManager::add_entry            :      0.000u      0.000s      0.000w      2 calls
| DIISManager::extrapolate          :      0.000u      0.000s      0.000w      2 calls
| | bMatrix setup                   :      0.000u      0.000s      0.000w      2 calls
| | bMatrix pseudoinverse           :      0.000u      0.000s      0.000w      2 calls
| | New vector                      :      0.000u      0.000s      0.000w      2 calls
HF: Form C                          :      0.000u      0.000s      0.000w      2 calls
Grad: V T Perturb                   :      0.000u      0.000s      0.001w      1 calls
Grad: S                             :      0.000u      0.000s      0.000w      1 calls
Grad: JK                            :      0.117u      0.017s      0.088w      1 calls
| JKGrad: Amn                       :      0.017u      0.000s      0.010w      1 calls
| JKGrad: Awmn                      :      0.000u      0.000s      0.000w      1 calls
| JKGrad: AB                        :      0.033u      0.000s      0.019w      1 calls
| JKGrad: UV                        :      0.000u      0.000s      0.000w      1 calls
| JKGrad: ABx                       :      0.017u      0.017s      0.024w      1 calls
| JKGrad: Amnx                      :      0.033u      0.000s      0.021w      1 calls
Grad: XC                            :      0.000u      0.000s      0.000w      1 calls

**************************************************************************************

Host: chem-mcdaniel-u01

Timers On : Sun Jan 24 20:59:43 2021
Timers Off: Sun Jan 24 20:59:43 2021

Wall Time:        0.25 seconds

                                                       Time (seconds)
Module                                       User      System        Wall        Calls

--------------------------------------------------------------------------------------

**************************************************************************************

Host: chem-mcdaniel-u01

Timers On : Sun Jan 24 21:00:04 2021
Timers Off: Sun Jan 24 21:00:04 2021

Wall Time:        0.25 seconds

                                                       Time (seconds)
Module                                       User      System        Wall        Calls

--------------------------------------------------------------------------------------

**************************************************************************************

Host: chem-mcdaniel-u01

Timers On : Sun Jan 24 21:00:18 2021
Timers Off: Sun Jan 24 21:00:19 2021

Wall Time:        0.59 seconds

                                                       Time (seconds)
Module                                       User      System        Wall        Calls
DFH: sparsity prep                  :      0.017u      0.000s      0.010w      1 calls
DFH: initialize()                   :      0.050u      0.000s      0.032w      1 calls
DFH: AO Construction                :      0.000u      0.000s      0.000w      1 calls
DFH: AO-Met. Contraction            :      0.000u      0.000s      0.000w      1 calls
HF: Form core H                     :      0.000u      0.000s      0.001w      1 calls
HF: Form S/X                        :      0.000u      0.000s      0.000w      1 calls
HF: Guess                           :      0.117u      0.000s      0.065w      1 calls
SAD Guess                           :      0.100u      0.000s      0.057w      1 calls
HF: Form G                          :      0.000u      0.000s      0.000w      5 calls
JK: D                               :      0.000u      0.000s      0.000w      5 calls
JK: USO2AO                          :      0.000u      0.000s      0.000w      5 calls
JK: JK                              :      0.000u      0.000s      0.000w      5 calls
DFH: compute_JK()                   :      0.000u      0.000s      0.000w      5 calls
DFH: Grabbing AOs                   :      0.000u      0.000s      0.000w      5 calls
DFH: compute_J                      :      0.000u      0.000s      0.000w      5 calls
DFH: compute_K                      :      0.000u      0.000s      0.000w      5 calls
JK: AO2USO                          :      0.000u      0.000s      0.000w      5 calls
HF: Form F                          :      0.000u      0.000s      0.000w      5 calls
HF: Form D                          :      0.000u      0.000s      0.000w      5 calls
HF: DIIS                            :      0.000u      0.000s      0.001w      4 calls
DIISManager::add_entry              :      0.000u      0.000s      0.000w      4 calls
DIISManager::extrapolate            :      0.000u      0.000s      0.000w      4 calls
bMatrix setup                       :      0.000u      0.000s      0.000w      4 calls
bMatrix pseudoinverse               :      0.000u      0.000s      0.000w      4 calls
New vector                          :      0.000u      0.000s      0.000w      4 calls
HF: Form C                          :      0.000u      0.000s      0.000w      4 calls
Grad: V T Perturb                   :      0.000u      0.000s      0.000w      1 calls
Grad: S                             :      0.000u      0.000s      0.000w      1 calls
Grad: JK                            :      0.117u      0.000s      0.064w      1 calls
JKGrad: Amn                         :      0.033u      0.000s      0.010w      1 calls
JKGrad: Awmn                        :      0.000u      0.000s      0.000w      1 calls
JKGrad: AB                          :      0.017u      0.000s      0.020w      1 calls
JKGrad: UV                          :      0.000u      0.000s      0.000w      1 calls
JKGrad: ABx                         :      0.033u      0.000s      0.012w      1 calls
JKGrad: Amnx                        :      0.017u      0.000s      0.011w      1 calls
Grad: XC                            :      0.000u      0.000s      0.000w      1 calls

--------------------------------------------------------------------------------------
DFH: sparsity prep                  :      0.017u      0.000s      0.010w      1 calls
DFH: initialize()                   :      0.050u      0.000s      0.032w      1 calls
| DFH: AO Construction              :      0.000u      0.000s      0.000w      1 calls
| DFH: AO-Met. Contraction          :      0.000u      0.000s      0.000w      1 calls
HF: Form core H                     :      0.000u      0.000s      0.001w      1 calls
HF: Form S/X                        :      0.000u      0.000s      0.000w      1 calls
HF: Guess                           :      0.117u      0.000s      0.065w      1 calls
| SAD Guess                         :      0.100u      0.000s      0.057w      1 calls
HF: Form G                          :      0.000u      0.000s      0.000w      5 calls
| JK: D                             :      0.000u      0.000s      0.000w      5 calls
| JK: USO2AO                        :      0.000u      0.000s      0.000w      5 calls
| JK: JK                            :      0.000u      0.000s      0.000w      5 calls
| | DFH: compute_JK()               :      0.000u      0.000s      0.000w      5 calls
| | | DFH: Grabbing AOs             :      0.000u      0.000s      0.000w      5 calls
| | | DFH: compute_J                :      0.000u      0.000s      0.000w      5 calls
| | | DFH: compute_K                :      0.000u      0.000s      0.000w      5 calls
| JK: AO2USO                        :      0.000u      0.000s      0.000w      5 calls
HF: Form F                          :      0.000u      0.000s      0.000w      5 calls
HF: Form D                          :      0.000u      0.000s      0.000w      5 calls
HF: DIIS                            :      0.000u      0.000s      0.001w      4 calls
| DIISManager::add_entry            :      0.000u      0.000s      0.000w      4 calls
| DIISManager::extrapolate          :      0.000u      0.000s      0.000w      4 calls
| | bMatrix setup                   :      0.000u      0.000s      0.000w      4 calls
| | bMatrix pseudoinverse           :      0.000u      0.000s      0.000w      4 calls
| | New vector                      :      0.000u      0.000s      0.000w      4 calls
HF: Form C                          :      0.000u      0.000s      0.000w      4 calls
Grad: V T Perturb                   :      0.000u      0.000s      0.000w      1 calls
Grad: S                             :      0.000u      0.000s      0.000w      1 calls
Grad: JK                            :      0.117u      0.000s      0.064w      1 calls
| JKGrad: Amn                       :      0.033u      0.000s      0.010w      1 calls
| JKGrad: Awmn                      :      0.000u      0.000s      0.000w      1 calls
| JKGrad: AB                        :      0.017u      0.000s      0.020w      1 calls
| JKGrad: UV                        :      0.000u      0.000s      0.000w      1 calls
| JKGrad: ABx                       :      0.033u      0.000s      0.012w      1 calls
| JKGrad: Amnx                      :      0.017u      0.000s      0.011w      1 calls
Grad: XC                            :      0.000u      0.000s      0.000w      1 calls

**************************************************************************************

Host: chem-mcdaniel-u01

Timers On : Sun Jan 24 21:03:20 2021
Timers Off: Sun Jan 24 21:03:20 2021

Wall Time:        0.38 seconds

                                                       Time (seconds)
Module                                       User      System        Wall        Calls
Total PK formation time             :      0.033u      0.000s      0.026w      1 calls
HF: Form core H                     :      0.000u      0.000s      0.001w      1 calls
HF: Form S/X                        :      0.000u      0.000s      0.000w      1 calls
HF: Guess                           :      0.000u      0.000s      0.000w      1 calls
HF: Form G                          :      0.000u      0.000s      0.000w      5 calls
JK: D                               :      0.000u      0.000s      0.000w      5 calls
JK: USO2AO                          :      0.000u      0.000s      0.000w      5 calls
JK: JK                              :      0.000u      0.000s      0.000w      5 calls
PK computes JK                      :      0.000u      0.000s      0.000w      5 calls
JK: AO2USO                          :      0.000u      0.000s      0.000w      5 calls
HF: Form F                          :      0.000u      0.000s      0.000w      5 calls
HF: DIIS                            :      0.017u      0.000s      0.002w      5 calls
DIISManager::add_entry              :      0.017u      0.000s      0.000w      5 calls
DIISManager::extrapolate            :      0.000u      0.000s      0.000w      5 calls
bMatrix setup                       :      0.000u      0.000s      0.000w      5 calls
bMatrix pseudoinverse               :      0.000u      0.000s      0.000w      5 calls
New vector                          :      0.000u      0.000s      0.000w      5 calls
HF: Form C                          :      0.000u      0.000s      0.000w      5 calls
HF: Form D                          :      0.000u      0.000s      0.000w      5 calls
Grad: V T Perturb                   :      0.000u      0.000s      0.001w      1 calls
Grad: S                             :      0.000u      0.000s      0.000w      1 calls
Grad: JK                            :      0.033u      0.000s      0.020w      1 calls
Grad: XC                            :      0.000u      0.000s      0.000w      1 calls

--------------------------------------------------------------------------------------
Total PK formation time             :      0.033u      0.000s      0.026w      1 calls
HF: Form core H                     :      0.000u      0.000s      0.001w      1 calls
HF: Form S/X                        :      0.000u      0.000s      0.000w      1 calls
HF: Guess                           :      0.000u      0.000s      0.000w      1 calls
HF: Form G                          :      0.000u      0.000s      0.000w      5 calls
| JK: D                             :      0.000u      0.000s      0.000w      5 calls
| JK: USO2AO                        :      0.000u      0.000s      0.000w      5 calls
| JK: JK                            :      0.000u      0.000s      0.000w      5 calls
| | PK computes JK                  :      0.000u      0.000s      0.000w      5 calls
| JK: AO2USO                        :      0.000u      0.000s      0.000w      5 calls
HF: Form F                          :      0.000u      0.000s      0.000w      5 calls
HF: DIIS                            :      0.017u      0.000s      0.002w      5 calls
| DIISManager::add_entry            :      0.017u      0.000s      0.000w      5 calls
| DIISManager::extrapolate          :      0.000u      0.000s      0.000w      5 calls
| | bMatrix setup                   :      0.000u      0.000s      0.000w      5 calls
| | bMatrix pseudoinverse           :      0.000u      0.000s      0.000w      5 calls
| | New vector                      :      0.000u      0.000s      0.000w      5 calls
HF: Form C                          :      0.000u      0.000s      0.000w      5 calls
HF: Form D                          :      0.000u      0.000s      0.000w      5 calls
Grad: V T Perturb                   :      0.000u      0.000s      0.001w      1 calls
Grad: S                             :      0.000u      0.000s      0.000w      1 calls
Grad: JK                            :      0.033u      0.000s      0.020w      1 calls
Grad: XC                            :      0.000u      0.000s      0.000w      1 calls

**************************************************************************************

Host: chem-mcdaniel-u01

Timers On : Sun Jan 24 21:57:42 2021
Timers Off: Sun Jan 24 21:57:43 2021

Wall Time:        0.37 seconds

                                                       Time (seconds)
Module                                       User      System        Wall        Calls
Total PK formation time             :      0.033u      0.000s      0.020w      1 calls
HF: Form core H                     :      0.000u      0.000s      0.001w      1 calls
HF: Form S/X                        :      0.000u      0.000s      0.000w      1 calls
HF: Guess                           :      0.000u      0.000s      0.000w      1 calls
HF: Form G                          :      0.000u      0.000s      0.000w      2 calls
JK: D                               :      0.000u      0.000s      0.000w      2 calls
JK: USO2AO                          :      0.000u      0.000s      0.000w      2 calls
JK: JK                              :      0.000u      0.000s      0.000w      2 calls
PK computes JK                      :      0.000u      0.000s      0.000w      2 calls
JK: AO2USO                          :      0.000u      0.000s      0.000w      2 calls
HF: Form F                          :      0.000u      0.000s      0.000w      2 calls
HF: DIIS                            :      0.000u      0.000s      0.001w      2 calls
DIISManager::add_entry              :      0.000u      0.000s      0.000w      2 calls
DIISManager::extrapolate            :      0.000u      0.000s      0.000w      2 calls
bMatrix setup                       :      0.000u      0.000s      0.000w      2 calls
bMatrix pseudoinverse               :      0.000u      0.000s      0.000w      2 calls
New vector                          :      0.000u      0.000s      0.000w      2 calls
HF: Form C                          :      0.000u      0.000s      0.000w      2 calls
HF: Form D                          :      0.000u      0.000s      0.000w      2 calls
Grad: V T Perturb                   :      0.000u      0.000s      0.001w      1 calls
Grad: S                             :      0.000u      0.000s      0.000w      1 calls
Grad: JK                            :      0.033u      0.000s      0.020w      1 calls
Grad: XC                            :      0.000u      0.000s      0.000w      1 calls

--------------------------------------------------------------------------------------
Total PK formation time             :      0.033u      0.000s      0.020w      1 calls
HF: Form core H                     :      0.000u      0.000s      0.001w      1 calls
HF: Form S/X                        :      0.000u      0.000s      0.000w      1 calls
HF: Guess                           :      0.000u      0.000s      0.000w      1 calls
HF: Form G                          :      0.000u      0.000s      0.000w      2 calls
| JK: D                             :      0.000u      0.000s      0.000w      2 calls
| JK: USO2AO                        :      0.000u      0.000s      0.000w      2 calls
| JK: JK                            :      0.000u      0.000s      0.000w      2 calls
| | PK computes JK                  :      0.000u      0.000s      0.000w      2 calls
| JK: AO2USO                        :      0.000u      0.000s      0.000w      2 calls
HF: Form F                          :      0.000u      0.000s      0.000w      2 calls
HF: DIIS                            :      0.000u      0.000s      0.001w      2 calls
| DIISManager::add_entry            :      0.000u      0.000s      0.000w      2 calls
| DIISManager::extrapolate          :      0.000u      0.000s      0.000w      2 calls
| | bMatrix setup                   :      0.000u      0.000s      0.000w      2 calls
| | bMatrix pseudoinverse           :      0.000u      0.000s      0.000w      2 calls
| | New vector                      :      0.000u      0.000s      0.000w      2 calls
HF: Form C                          :      0.000u      0.000s      0.000w      2 calls
HF: Form D                          :      0.000u      0.000s      0.000w      2 calls
Grad: V T Perturb                   :      0.000u      0.000s      0.001w      1 calls
Grad: S                             :      0.000u      0.000s      0.000w      1 calls
Grad: JK                            :      0.033u      0.000s      0.020w      1 calls
Grad: XC                            :      0.000u      0.000s      0.000w      1 calls

**************************************************************************************

Host: chem-mcdaniel-u01

Timers On : Sun Jan 24 22:00:40 2021
Timers Off: Sun Jan 24 22:00:40 2021

Wall Time:        0.47 seconds

                                                       Time (seconds)
Module                                       User      System        Wall        Calls
DFH: sparsity prep                  :      0.017u      0.000s      0.010w      1 calls
DFH: initialize()                   :      0.050u      0.000s      0.030w      1 calls
DFH: AO Construction                :      0.000u      0.000s      0.000w      1 calls
DFH: AO-Met. Contraction            :      0.000u      0.000s      0.000w      1 calls
HF: Form core H                     :      0.000u      0.000s      0.001w      1 calls
HF: Form S/X                        :      0.000u      0.000s      0.000w      1 calls
HF: Guess                           :      0.000u      0.000s      0.000w      1 calls
HF: Form G                          :      0.033u      0.000s      0.020w      4 calls
JK: D                               :      0.000u      0.000s      0.000w      4 calls
JK: USO2AO                          :      0.000u      0.000s      0.000w      4 calls
JK: JK                              :      0.033u      0.000s      0.020w      4 calls
DFH: compute_JK()                   :      0.000u      0.000s      0.000w      2 calls
DFH: Grabbing AOs                   :      0.000u      0.000s      0.000w      2 calls
DFH: compute_J                      :      0.000u      0.000s      0.000w      2 calls
DFH: compute_K                      :      0.000u      0.000s      0.000w      2 calls
JK: AO2USO                          :      0.000u      0.000s      0.000w      4 calls
HF: Form F                          :      0.000u      0.000s      0.000w      4 calls
HF: DIIS                            :      0.017u      0.000s      0.001w      4 calls
DIISManager::add_entry              :      0.000u      0.000s      0.000w      4 calls
DIISManager::extrapolate            :      0.000u      0.000s      0.000w      4 calls
bMatrix setup                       :      0.000u      0.000s      0.000w      4 calls
bMatrix pseudoinverse               :      0.000u      0.000s      0.000w      4 calls
New vector                          :      0.000u      0.000s      0.000w      4 calls
HF: Form C                          :      0.000u      0.000s      0.000w      4 calls
HF: Form D                          :      0.000u      0.000s      0.000w      4 calls
Grad: V T Perturb                   :      0.000u      0.000s      0.001w      1 calls
Grad: S                             :      0.000u      0.000s      0.000w      1 calls
Grad: JK                            :      0.033u      0.000s      0.020w      1 calls
Grad: XC                            :      0.000u      0.000s      0.000w      1 calls

--------------------------------------------------------------------------------------
DFH: sparsity prep                  :      0.017u      0.000s      0.010w      1 calls
DFH: initialize()                   :      0.050u      0.000s      0.030w      1 calls
| DFH: AO Construction              :      0.000u      0.000s      0.000w      1 calls
| DFH: AO-Met. Contraction          :      0.000u      0.000s      0.000w      1 calls
HF: Form core H                     :      0.000u      0.000s      0.001w      1 calls
HF: Form S/X                        :      0.000u      0.000s      0.000w      1 calls
HF: Guess                           :      0.000u      0.000s      0.000w      1 calls
HF: Form G                          :      0.033u      0.000s      0.020w      4 calls
| JK: D                             :      0.000u      0.000s      0.000w      4 calls
| JK: USO2AO                        :      0.000u      0.000s      0.000w      4 calls
| JK: JK                            :      0.033u      0.000s      0.020w      4 calls
| | DFH: compute_JK()               :      0.000u      0.000s      0.000w      2 calls
| | | DFH: Grabbing AOs             :      0.000u      0.000s      0.000w      2 calls
| | | DFH: compute_J                :      0.000u      0.000s      0.000w      2 calls
| | | DFH: compute_K                :      0.000u      0.000s      0.000w      2 calls
| JK: AO2USO                        :      0.000u      0.000s      0.000w      4 calls
HF: Form F                          :      0.000u      0.000s      0.000w      4 calls
HF: DIIS                            :      0.017u      0.000s      0.001w      4 calls
| DIISManager::add_entry            :      0.000u      0.000s      0.000w      4 calls
| DIISManager::extrapolate          :      0.000u      0.000s      0.000w      4 calls
| | bMatrix setup                   :      0.000u      0.000s      0.000w      4 calls
| | bMatrix pseudoinverse           :      0.000u      0.000s      0.000w      4 calls
| | New vector                      :      0.000u      0.000s      0.000w      4 calls
HF: Form C                          :      0.000u      0.000s      0.000w      4 calls
HF: Form D                          :      0.000u      0.000s      0.000w      4 calls
Grad: V T Perturb                   :      0.000u      0.000s      0.001w      1 calls
Grad: S                             :      0.000u      0.000s      0.000w      1 calls
Grad: JK                            :      0.033u      0.000s      0.020w      1 calls
Grad: XC                            :      0.000u      0.000s      0.000w      1 calls

**************************************************************************************

Host: chem-mcdaniel-u01

Timers On : Sun Jan 24 22:01:43 2021
Timers Off: Sun Jan 24 22:01:43 2021

Wall Time:        0.49 seconds

                                                       Time (seconds)
Module                                       User      System        Wall        Calls
DFH: sparsity prep                  :      0.017u      0.000s      0.010w      1 calls
DFH: initialize()                   :      0.050u      0.000s      0.030w      1 calls
DFH: AO Construction                :      0.000u      0.000s      0.000w      1 calls
DFH: AO-Met. Contraction            :      0.000u      0.000s      0.000w      1 calls
HF: Form core H                     :      0.000u      0.000s      0.001w      1 calls
HF: Form S/X                        :      0.000u      0.000s      0.000w      1 calls
HF: Guess                           :      0.000u      0.000s      0.000w      1 calls
HF: Form G                          :      0.050u      0.000s      0.029w     10 calls
JK: D                               :      0.000u      0.000s      0.000w     10 calls
JK: USO2AO                          :      0.000u      0.000s      0.000w     10 calls
JK: JK                              :      0.050u      0.000s      0.029w     10 calls
DFH: compute_JK()                   :      0.000u      0.000s      0.000w      7 calls
DFH: Grabbing AOs                   :      0.000u      0.000s      0.000w      7 calls
DFH: compute_J                      :      0.000u      0.000s      0.000w      7 calls
DFH: compute_K                      :      0.000u      0.000s      0.000w      7 calls
JK: AO2USO                          :      0.000u      0.000s      0.000w     10 calls
HF: Form F                          :      0.000u      0.000s      0.000w     10 calls
HF: DIIS                            :      0.017u      0.000s      0.003w     10 calls
DIISManager::add_entry              :      0.000u      0.000s      0.000w     10 calls
DIISManager::extrapolate            :      0.000u      0.000s      0.000w     10 calls
bMatrix setup                       :      0.000u      0.000s      0.000w     10 calls
bMatrix pseudoinverse               :      0.000u      0.000s      0.000w     10 calls
New vector                          :      0.000u      0.000s      0.000w     10 calls
HF: Form C                          :      0.000u      0.000s      0.000w     10 calls
HF: Form D                          :      0.000u      0.000s      0.000w     10 calls
Grad: V T Perturb                   :      0.000u      0.000s      0.001w      1 calls
Grad: S                             :      0.000u      0.000s      0.000w      1 calls
Grad: JK                            :      0.033u      0.000s      0.020w      1 calls
Grad: XC                            :      0.000u      0.000s      0.000w      1 calls

--------------------------------------------------------------------------------------
DFH: sparsity prep                  :      0.017u      0.000s      0.010w      1 calls
DFH: initialize()                   :      0.050u      0.000s      0.030w      1 calls
| DFH: AO Construction              :      0.000u      0.000s      0.000w      1 calls
| DFH: AO-Met. Contraction          :      0.000u      0.000s      0.000w      1 calls
HF: Form core H                     :      0.000u      0.000s      0.001w      1 calls
HF: Form S/X                        :      0.000u      0.000s      0.000w      1 calls
HF: Guess                           :      0.000u      0.000s      0.000w      1 calls
HF: Form G                          :      0.050u      0.000s      0.029w     10 calls
| JK: D                             :      0.000u      0.000s      0.000w     10 calls
| JK: USO2AO                        :      0.000u      0.000s      0.000w     10 calls
| JK: JK                            :      0.050u      0.000s      0.029w     10 calls
| | DFH: compute_JK()               :      0.000u      0.000s      0.000w      7 calls
| | | DFH: Grabbing AOs             :      0.000u      0.000s      0.000w      7 calls
| | | DFH: compute_J                :      0.000u      0.000s      0.000w      7 calls
| | | DFH: compute_K                :      0.000u      0.000s      0.000w      7 calls
| JK: AO2USO                        :      0.000u      0.000s      0.000w     10 calls
HF: Form F                          :      0.000u      0.000s      0.000w     10 calls
HF: DIIS                            :      0.017u      0.000s      0.003w     10 calls
| DIISManager::add_entry            :      0.000u      0.000s      0.000w     10 calls
| DIISManager::extrapolate          :      0.000u      0.000s      0.000w     10 calls
| | bMatrix setup                   :      0.000u      0.000s      0.000w     10 calls
| | bMatrix pseudoinverse           :      0.000u      0.000s      0.000w     10 calls
| | New vector                      :      0.000u      0.000s      0.000w     10 calls
HF: Form C                          :      0.000u      0.000s      0.000w     10 calls
HF: Form D                          :      0.000u      0.000s      0.000w     10 calls
Grad: V T Perturb                   :      0.000u      0.000s      0.001w      1 calls
Grad: S                             :      0.000u      0.000s      0.000w      1 calls
Grad: JK                            :      0.033u      0.000s      0.020w      1 calls
Grad: XC                            :      0.000u      0.000s      0.000w      1 calls

**************************************************************************************

Host: chem-mcdaniel-u01

Timers On : Sun Jan 24 22:11:54 2021
Timers Off: Sun Jan 24 22:11:54 2021

Wall Time:        0.34 seconds

                                                       Time (seconds)
Module                                       User      System        Wall        Calls
Total PK formation time             :      0.033u      0.017s      0.020w      1 calls
HF: Form core H                     :      0.000u      0.000s      0.001w      1 calls
HF: Form S/X                        :      0.000u      0.000s      0.000w      1 calls
HF: Guess                           :      0.000u      0.000s      0.000w      1 calls
HF: Form G                          :      0.000u      0.000s      0.000w      6 calls
JK: D                               :      0.000u      0.000s      0.000w      6 calls
JK: USO2AO                          :      0.000u      0.000s      0.000w      6 calls
JK: JK                              :      0.000u      0.000s      0.000w      6 calls
PK computes JK                      :      0.000u      0.000s      0.000w      6 calls
JK: AO2USO                          :      0.000u      0.000s      0.000w      6 calls
HF: Form F                          :      0.000u      0.000s      0.000w      6 calls
HF: DIIS                            :      0.017u      0.000s      0.002w      6 calls
DIISManager::add_entry              :      0.000u      0.000s      0.000w      6 calls
DIISManager::extrapolate            :      0.000u      0.000s      0.000w      6 calls
bMatrix setup                       :      0.000u      0.000s      0.000w      6 calls
bMatrix pseudoinverse               :      0.000u      0.000s      0.000w      6 calls
New vector                          :      0.000u      0.000s      0.000w      6 calls
HF: Form C                          :      0.000u      0.000s      0.000w      6 calls
HF: Form D                          :      0.000u      0.000s      0.000w      6 calls

--------------------------------------------------------------------------------------
Total PK formation time             :      0.033u      0.017s      0.020w      1 calls
HF: Form core H                     :      0.000u      0.000s      0.001w      1 calls
HF: Form S/X                        :      0.000u      0.000s      0.000w      1 calls
HF: Guess                           :      0.000u      0.000s      0.000w      1 calls
HF: Form G                          :      0.000u      0.000s      0.000w      6 calls
| JK: D                             :      0.000u      0.000s      0.000w      6 calls
| JK: USO2AO                        :      0.000u      0.000s      0.000w      6 calls
| JK: JK                            :      0.000u      0.000s      0.000w      6 calls
| | PK computes JK                  :      0.000u      0.000s      0.000w      6 calls
| JK: AO2USO                        :      0.000u      0.000s      0.000w      6 calls
HF: Form F                          :      0.000u      0.000s      0.000w      6 calls
HF: DIIS                            :      0.017u      0.000s      0.002w      6 calls
| DIISManager::add_entry            :      0.000u      0.000s      0.000w      6 calls
| DIISManager::extrapolate          :      0.000u      0.000s      0.000w      6 calls
| | bMatrix setup                   :      0.000u      0.000s      0.000w      6 calls
| | bMatrix pseudoinverse           :      0.000u      0.000s      0.000w      6 calls
| | New vector                      :      0.000u      0.000s      0.000w      6 calls
HF: Form C                          :      0.000u      0.000s      0.000w      6 calls
HF: Form D                          :      0.000u      0.000s      0.000w      6 calls

**************************************************************************************

Host: chem-mcdaniel-u01

Timers On : Sun Jan 24 22:12:42 2021
Timers Off: Sun Jan 24 22:12:42 2021

Wall Time:        0.34 seconds

                                                       Time (seconds)
Module                                       User      System        Wall        Calls
Total PK formation time             :      0.033u      0.000s      0.020w      1 calls
HF: Form core H                     :      0.000u      0.000s      0.001w      1 calls
HF: Form S/X                        :      0.000u      0.000s      0.000w      1 calls
HF: Guess                           :      0.000u      0.000s      0.000w      1 calls
HF: Form G                          :      0.000u      0.000s      0.000w      6 calls
JK: D                               :      0.000u      0.000s      0.000w      6 calls
JK: USO2AO                          :      0.000u      0.000s      0.000w      6 calls
JK: JK                              :      0.000u      0.000s      0.000w      6 calls
PK computes JK                      :      0.000u      0.000s      0.000w      6 calls
JK: AO2USO                          :      0.000u      0.000s      0.000w      6 calls
HF: Form F                          :      0.000u      0.000s      0.000w      6 calls
HF: DIIS                            :      0.000u      0.017s      0.002w      6 calls
DIISManager::add_entry              :      0.000u      0.000s      0.000w      6 calls
DIISManager::extrapolate            :      0.000u      0.000s      0.000w      6 calls
bMatrix setup                       :      0.000u      0.000s      0.000w      6 calls
bMatrix pseudoinverse               :      0.000u      0.000s      0.000w      6 calls
New vector                          :      0.000u      0.000s      0.000w      6 calls
HF: Form C                          :      0.000u      0.000s      0.000w      6 calls
HF: Form D                          :      0.000u      0.000s      0.000w      6 calls

--------------------------------------------------------------------------------------
Total PK formation time             :      0.033u      0.000s      0.020w      1 calls
HF: Form core H                     :      0.000u      0.000s      0.001w      1 calls
HF: Form S/X                        :      0.000u      0.000s      0.000w      1 calls
HF: Guess                           :      0.000u      0.000s      0.000w      1 calls
HF: Form G                          :      0.000u      0.000s      0.000w      6 calls
| JK: D                             :      0.000u      0.000s      0.000w      6 calls
| JK: USO2AO                        :      0.000u      0.000s      0.000w      6 calls
| JK: JK                            :      0.000u      0.000s      0.000w      6 calls
| | PK computes JK                  :      0.000u      0.000s      0.000w      6 calls
| JK: AO2USO                        :      0.000u      0.000s      0.000w      6 calls
HF: Form F                          :      0.000u      0.000s      0.000w      6 calls
HF: DIIS                            :      0.000u      0.017s      0.002w      6 calls
| DIISManager::add_entry            :      0.000u      0.000s      0.000w      6 calls
| DIISManager::extrapolate          :      0.000u      0.000s      0.000w      6 calls
| | bMatrix setup                   :      0.000u      0.000s      0.000w      6 calls
| | bMatrix pseudoinverse           :      0.000u      0.000s      0.000w      6 calls
| | New vector                      :      0.000u      0.000s      0.000w      6 calls
HF: Form C                          :      0.000u      0.000s      0.000w      6 calls
HF: Form D                          :      0.000u      0.000s      0.000w      6 calls

**************************************************************************************

Host: chem-mcdaniel-u01

Timers On : Sun Jan 24 22:12:57 2021
Timers Off: Sun Jan 24 22:12:57 2021

Wall Time:        0.34 seconds

                                                       Time (seconds)
Module                                       User      System        Wall        Calls
Total PK formation time             :      0.033u      0.000s      0.020w      1 calls
HF: Form core H                     :      0.000u      0.000s      0.001w      1 calls
HF: Form S/X                        :      0.000u      0.000s      0.000w      1 calls
HF: Guess                           :      0.000u      0.000s      0.000w      1 calls
HF: Form G                          :      0.000u      0.000s      0.000w      6 calls
JK: D                               :      0.000u      0.000s      0.000w      6 calls
JK: USO2AO                          :      0.000u      0.000s      0.000w      6 calls
JK: JK                              :      0.000u      0.000s      0.000w      6 calls
PK computes JK                      :      0.000u      0.000s      0.000w      6 calls
JK: AO2USO                          :      0.000u      0.000s      0.000w      6 calls
HF: Form F                          :      0.000u      0.000s      0.000w      6 calls
HF: DIIS                            :      0.000u      0.000s      0.002w      6 calls
DIISManager::add_entry              :      0.000u      0.000s      0.000w      6 calls
DIISManager::extrapolate            :      0.000u      0.000s      0.000w      6 calls
bMatrix setup                       :      0.000u      0.000s      0.000w      6 calls
bMatrix pseudoinverse               :      0.000u      0.000s      0.000w      6 calls
New vector                          :      0.000u      0.000s      0.000w      6 calls
HF: Form C                          :      0.000u      0.000s      0.000w      6 calls
HF: Form D                          :      0.000u      0.000s      0.000w      6 calls

--------------------------------------------------------------------------------------
Total PK formation time             :      0.033u      0.000s      0.020w      1 calls
HF: Form core H                     :      0.000u      0.000s      0.001w      1 calls
HF: Form S/X                        :      0.000u      0.000s      0.000w      1 calls
HF: Guess                           :      0.000u      0.000s      0.000w      1 calls
HF: Form G                          :      0.000u      0.000s      0.000w      6 calls
| JK: D                             :      0.000u      0.000s      0.000w      6 calls
| JK: USO2AO                        :      0.000u      0.000s      0.000w      6 calls
| JK: JK                            :      0.000u      0.000s      0.000w      6 calls
| | PK computes JK                  :      0.000u      0.000s      0.000w      6 calls
| JK: AO2USO                        :      0.000u      0.000s      0.000w      6 calls
HF: Form F                          :      0.000u      0.000s      0.000w      6 calls
HF: DIIS                            :      0.000u      0.000s      0.002w      6 calls
| DIISManager::add_entry            :      0.000u      0.000s      0.000w      6 calls
| DIISManager::extrapolate          :      0.000u      0.000s      0.000w      6 calls
| | bMatrix setup                   :      0.000u      0.000s      0.000w      6 calls
| | bMatrix pseudoinverse           :      0.000u      0.000s      0.000w      6 calls
| | New vector                      :      0.000u      0.000s      0.000w      6 calls
HF: Form C                          :      0.000u      0.000s      0.000w      6 calls
HF: Form D                          :      0.000u      0.000s      0.000w      6 calls

**************************************************************************************

Host: chem-mcdaniel-u01

Timers On : Sun Jan 31 17:46:37 2021
Timers Off: Sun Jan 31 17:46:37 2021

Wall Time:        0.36 seconds

                                                       Time (seconds)
Module                                       User      System        Wall        Calls
Total PK formation time             :      0.033u      0.000s      0.020w      1 calls
HF: Form core H                     :      0.000u      0.000s      0.001w      1 calls
HF: Form S/X                        :      0.000u      0.000s      0.000w      1 calls
HF: Guess                           :      0.000u      0.000s      0.000w      1 calls
HF: Form G                          :      0.000u      0.000s      0.000w      5 calls
JK: D                               :      0.000u      0.000s      0.000w      5 calls
JK: USO2AO                          :      0.000u      0.000s      0.000w      5 calls
JK: JK                              :      0.000u      0.000s      0.000w      5 calls
PK computes JK                      :      0.000u      0.000s      0.000w      5 calls
JK: AO2USO                          :      0.000u      0.000s      0.000w      5 calls
HF: Form F                          :      0.000u      0.000s      0.000w      5 calls
HF: DIIS                            :      0.017u      0.000s      0.002w      5 calls
DIISManager::add_entry              :      0.000u      0.000s      0.000w      5 calls
DIISManager::extrapolate            :      0.000u      0.000s      0.000w      5 calls
bMatrix setup                       :      0.000u      0.000s      0.000w      5 calls
bMatrix pseudoinverse               :      0.000u      0.000s      0.000w      5 calls
New vector                          :      0.000u      0.000s      0.000w      5 calls
HF: Form C                          :      0.000u      0.000s      0.000w      5 calls
HF: Form D                          :      0.000u      0.000s      0.000w      5 calls

--------------------------------------------------------------------------------------
Total PK formation time             :      0.033u      0.000s      0.020w      1 calls
HF: Form core H                     :      0.000u      0.000s      0.001w      1 calls
HF: Form S/X                        :      0.000u      0.000s      0.000w      1 calls
HF: Guess                           :      0.000u      0.000s      0.000w      1 calls
HF: Form G                          :      0.000u      0.000s      0.000w      5 calls
| JK: D                             :      0.000u      0.000s      0.000w      5 calls
| JK: USO2AO                        :      0.000u      0.000s      0.000w      5 calls
| JK: JK                            :      0.000u      0.000s      0.000w      5 calls
| | PK computes JK                  :      0.000u      0.000s      0.000w      5 calls
| JK: AO2USO                        :      0.000u      0.000s      0.000w      5 calls
HF: Form F                          :      0.000u      0.000s      0.000w      5 calls
HF: DIIS                            :      0.017u      0.000s      0.002w      5 calls
| DIISManager::add_entry            :      0.000u      0.000s      0.000w      5 calls
| DIISManager::extrapolate          :      0.000u      0.000s      0.000w      5 calls
| | bMatrix setup                   :      0.000u      0.000s      0.000w      5 calls
| | bMatrix pseudoinverse           :      0.000u      0.000s      0.000w      5 calls
| | New vector                      :      0.000u      0.000s      0.000w      5 calls
HF: Form C                          :      0.000u      0.000s      0.000w      5 calls
HF: Form D                          :      0.000u      0.000s      0.000w      5 calls

**************************************************************************************

Host: chem-mcdaniel-u01

Timers On : Sun Jan 31 17:47:12 2021
Timers Off: Sun Jan 31 17:47:12 2021

Wall Time:        0.23 seconds

                                                       Time (seconds)
Module                                       User      System        Wall        Calls

--------------------------------------------------------------------------------------

**************************************************************************************

Host: chem-mcdaniel-u01

Timers On : Sun Jan 31 17:47:28 2021
Timers Off: Sun Jan 31 17:47:29 2021

Wall Time:        0.36 seconds

                                                       Time (seconds)
Module                                       User      System        Wall        Calls
Total PK formation time             :      0.033u      0.000s      0.020w      1 calls
HF: Form core H                     :      0.000u      0.000s      0.001w      1 calls
HF: Form S/X                        :      0.000u      0.000s      0.000w      1 calls
HF: Guess                           :      0.000u      0.000s      0.000w      1 calls
HF: Form G                          :      0.000u      0.000s      0.000w      2 calls
JK: D                               :      0.000u      0.000s      0.000w      2 calls
JK: USO2AO                          :      0.000u      0.000s      0.000w      2 calls
JK: JK                              :      0.000u      0.000s      0.000w      2 calls
PK computes JK                      :      0.000u      0.000s      0.000w      2 calls
JK: AO2USO                          :      0.000u      0.000s      0.000w      2 calls
HF: Form F                          :      0.000u      0.000s      0.000w      2 calls
HF: DIIS                            :      0.017u      0.000s      0.001w      2 calls
DIISManager::add_entry              :      0.000u      0.000s      0.000w      2 calls
DIISManager::extrapolate            :      0.000u      0.000s      0.000w      2 calls
bMatrix setup                       :      0.000u      0.000s      0.000w      2 calls
bMatrix pseudoinverse               :      0.000u      0.000s      0.000w      2 calls
New vector                          :      0.000u      0.000s      0.000w      2 calls
HF: Form C                          :      0.000u      0.000s      0.000w      2 calls
HF: Form D                          :      0.000u      0.000s      0.000w      2 calls

--------------------------------------------------------------------------------------
Total PK formation time             :      0.033u      0.000s      0.020w      1 calls
HF: Form core H                     :      0.000u      0.000s      0.001w      1 calls
HF: Form S/X                        :      0.000u      0.000s      0.000w      1 calls
HF: Guess                           :      0.000u      0.000s      0.000w      1 calls
HF: Form G                          :      0.000u      0.000s      0.000w      2 calls
| JK: D                             :      0.000u      0.000s      0.000w      2 calls
| JK: USO2AO                        :      0.000u      0.000s      0.000w      2 calls
| JK: JK                            :      0.000u      0.000s      0.000w      2 calls
| | PK computes JK                  :      0.000u      0.000s      0.000w      2 calls
| JK: AO2USO                        :      0.000u      0.000s      0.000w      2 calls
HF: Form F                          :      0.000u      0.000s      0.000w      2 calls
HF: DIIS                            :      0.017u      0.000s      0.001w      2 calls
| DIISManager::add_entry            :      0.000u      0.000s      0.000w      2 calls
| DIISManager::extrapolate          :      0.000u      0.000s      0.000w      2 calls
| | bMatrix setup                   :      0.000u      0.000s      0.000w      2 calls
| | bMatrix pseudoinverse           :      0.000u      0.000s      0.000w      2 calls
| | New vector                      :      0.000u      0.000s      0.000w      2 calls
HF: Form C                          :      0.000u      0.000s      0.000w      2 calls
HF: Form D                          :      0.000u      0.000s      0.000w      2 calls

**************************************************************************************

Host: chem-mcdaniel-u01

Timers On : Sun Jan 31 17:48:41 2021
Timers Off: Sun Jan 31 17:48:41 2021

Wall Time:        0.36 seconds

                                                       Time (seconds)
Module                                       User      System        Wall        Calls
Total PK formation time             :      0.033u      0.000s      0.020w      1 calls
HF: Form core H                     :      0.000u      0.000s      0.001w      1 calls
HF: Form S/X                        :      0.000u      0.000s      0.000w      1 calls
HF: Guess                           :      0.000u      0.000s      0.000w      1 calls
HF: Form G                          :      0.000u      0.000s      0.000w      4 calls
JK: D                               :      0.000u      0.000s      0.000w      4 calls
JK: USO2AO                          :      0.000u      0.000s      0.000w      4 calls
JK: JK                              :      0.000u      0.000s      0.000w      4 calls
PK computes JK                      :      0.000u      0.000s      0.000w      4 calls
JK: AO2USO                          :      0.000u      0.000s      0.000w      4 calls
HF: Form F                          :      0.000u      0.000s      0.000w      4 calls
HF: DIIS                            :      0.000u      0.000s      0.001w      4 calls
DIISManager::add_entry              :      0.000u      0.000s      0.000w      4 calls
DIISManager::extrapolate            :      0.000u      0.000s      0.000w      4 calls
bMatrix setup                       :      0.000u      0.000s      0.000w      4 calls
bMatrix pseudoinverse               :      0.000u      0.000s      0.000w      4 calls
New vector                          :      0.000u      0.000s      0.000w      4 calls
HF: Form C                          :      0.000u      0.000s      0.000w      4 calls
HF: Form D                          :      0.000u      0.000s      0.000w      4 calls

--------------------------------------------------------------------------------------
Total PK formation time             :      0.033u      0.000s      0.020w      1 calls
HF: Form core H                     :      0.000u      0.000s      0.001w      1 calls
HF: Form S/X                        :      0.000u      0.000s      0.000w      1 calls
HF: Guess                           :      0.000u      0.000s      0.000w      1 calls
HF: Form G                          :      0.000u      0.000s      0.000w      4 calls
| JK: D                             :      0.000u      0.000s      0.000w      4 calls
| JK: USO2AO                        :      0.000u      0.000s      0.000w      4 calls
| JK: JK                            :      0.000u      0.000s      0.000w      4 calls
| | PK computes JK                  :      0.000u      0.000s      0.000w      4 calls
| JK: AO2USO                        :      0.000u      0.000s      0.000w      4 calls
HF: Form F                          :      0.000u      0.000s      0.000w      4 calls
HF: DIIS                            :      0.000u      0.000s      0.001w      4 calls
| DIISManager::add_entry            :      0.000u      0.000s      0.000w      4 calls
| DIISManager::extrapolate          :      0.000u      0.000s      0.000w      4 calls
| | bMatrix setup                   :      0.000u      0.000s      0.000w      4 calls
| | bMatrix pseudoinverse           :      0.000u      0.000s      0.000w      4 calls
| | New vector                      :      0.000u      0.000s      0.000w      4 calls
HF: Form C                          :      0.000u      0.000s      0.000w      4 calls
HF: Form D                          :      0.000u      0.000s      0.000w      4 calls

**************************************************************************************

Host: chem-mcdaniel-u01

Timers On : Sun Jan 31 19:11:08 2021
Timers Off: Sun Jan 31 19:11:09 2021

Wall Time:        0.49 seconds

                                                       Time (seconds)
Module                                       User      System        Wall        Calls
Total PK formation time             :      0.000u      0.000s      0.004w      1 calls
HF: Form core H                     :      0.000u      0.000s      0.000w      1 calls
HF: Form S/X                        :      0.000u      0.017s      0.000w      1 calls
HF: Guess                           :      0.000u      0.000s      0.000w      1 calls
HF: Form G                          :      0.000u      0.000s      0.000w      4 calls
JK: D                               :      0.000u      0.000s      0.000w      4 calls
JK: USO2AO                          :      0.000u      0.000s      0.000w      4 calls
JK: JK                              :      0.000u      0.000s      0.000w      4 calls
PK computes JK                      :      0.000u      0.000s      0.000w      4 calls
JK: AO2USO                          :      0.000u      0.000s      0.000w      4 calls
HF: Form F                          :      0.000u      0.000s      0.000w      4 calls
HF: DIIS                            :      0.000u      0.000s      0.001w      4 calls
DIISManager::add_entry              :      0.000u      0.000s      0.000w      4 calls
DIISManager::extrapolate            :      0.000u      0.000s      0.000w      4 calls
bMatrix setup                       :      0.000u      0.000s      0.000w      4 calls
bMatrix pseudoinverse               :      0.000u      0.000s      0.000w      4 calls
New vector                          :      0.000u      0.000s      0.000w      4 calls
HF: Form C                          :      0.000u      0.000s      0.000w      4 calls
HF: Form D                          :      0.000u      0.000s      0.000w      4 calls

--------------------------------------------------------------------------------------
Total PK formation time             :      0.000u      0.000s      0.004w      1 calls
HF: Form core H                     :      0.000u      0.000s      0.000w      1 calls
HF: Form S/X                        :      0.000u      0.017s      0.000w      1 calls
HF: Guess                           :      0.000u      0.000s      0.000w      1 calls
HF: Form G                          :      0.000u      0.000s      0.000w      4 calls
| JK: D                             :      0.000u      0.000s      0.000w      4 calls
| JK: USO2AO                        :      0.000u      0.000s      0.000w      4 calls
| JK: JK                            :      0.000u      0.000s      0.000w      4 calls
| | PK computes JK                  :      0.000u      0.000s      0.000w      4 calls
| JK: AO2USO                        :      0.000u      0.000s      0.000w      4 calls
HF: Form F                          :      0.000u      0.000s      0.000w      4 calls
HF: DIIS                            :      0.000u      0.000s      0.001w      4 calls
| DIISManager::add_entry            :      0.000u      0.000s      0.000w      4 calls
| DIISManager::extrapolate          :      0.000u      0.000s      0.000w      4 calls
| | bMatrix setup                   :      0.000u      0.000s      0.000w      4 calls
| | bMatrix pseudoinverse           :      0.000u      0.000s      0.000w      4 calls
| | New vector                      :      0.000u      0.000s      0.000w      4 calls
HF: Form C                          :      0.000u      0.000s      0.000w      4 calls
HF: Form D                          :      0.000u      0.000s      0.000w      4 calls

**************************************************************************************

Host: chem-mcdaniel-u01

Timers On : Sun Jan 31 19:16:20 2021
Timers Off: Sun Jan 31 19:16:21 2021

Wall Time:        0.40 seconds

                                                       Time (seconds)
Module                                       User      System        Wall        Calls
Total PK formation time             :      0.000u      0.000s      0.004w      1 calls
HF: Form core H                     :      0.000u      0.000s      0.000w      1 calls
HF: Form S/X                        :      0.000u      0.000s      0.000w      1 calls
HF: Guess                           :      0.000u      0.000s      0.000w      1 calls
HF: Form G                          :      0.000u      0.000s      0.000w      2 calls
JK: D                               :      0.000u      0.000s      0.000w      2 calls
JK: USO2AO                          :      0.000u      0.000s      0.000w      2 calls
JK: JK                              :      0.000u      0.000s      0.000w      2 calls
PK computes JK                      :      0.000u      0.000s      0.000w      2 calls
JK: AO2USO                          :      0.000u      0.000s      0.000w      2 calls
HF: Form F                          :      0.000u      0.000s      0.000w      2 calls
HF: DIIS                            :      0.000u      0.000s      0.001w      2 calls
DIISManager::add_entry              :      0.000u      0.000s      0.000w      2 calls
DIISManager::extrapolate            :      0.000u      0.000s      0.000w      2 calls
bMatrix setup                       :      0.000u      0.000s      0.000w      2 calls
bMatrix pseudoinverse               :      0.000u      0.000s      0.000w      2 calls
New vector                          :      0.000u      0.000s      0.000w      2 calls
HF: Form C                          :      0.000u      0.000s      0.000w      2 calls
HF: Form D                          :      0.000u      0.000s      0.000w      2 calls

--------------------------------------------------------------------------------------
Total PK formation time             :      0.000u      0.000s      0.004w      1 calls
HF: Form core H                     :      0.000u      0.000s      0.000w      1 calls
HF: Form S/X                        :      0.000u      0.000s      0.000w      1 calls
HF: Guess                           :      0.000u      0.000s      0.000w      1 calls
HF: Form G                          :      0.000u      0.000s      0.000w      2 calls
| JK: D                             :      0.000u      0.000s      0.000w      2 calls
| JK: USO2AO                        :      0.000u      0.000s      0.000w      2 calls
| JK: JK                            :      0.000u      0.000s      0.000w      2 calls
| | PK computes JK                  :      0.000u      0.000s      0.000w      2 calls
| JK: AO2USO                        :      0.000u      0.000s      0.000w      2 calls
HF: Form F                          :      0.000u      0.000s      0.000w      2 calls
HF: DIIS                            :      0.000u      0.000s      0.001w      2 calls
| DIISManager::add_entry            :      0.000u      0.000s      0.000w      2 calls
| DIISManager::extrapolate          :      0.000u      0.000s      0.000w      2 calls
| | bMatrix setup                   :      0.000u      0.000s      0.000w      2 calls
| | bMatrix pseudoinverse           :      0.000u      0.000s      0.000w      2 calls
| | New vector                      :      0.000u      0.000s      0.000w      2 calls
HF: Form C                          :      0.000u      0.000s      0.000w      2 calls
HF: Form D                          :      0.000u      0.000s      0.000w      2 calls

**************************************************************************************

Host: chem-mcdaniel-u01

Timers On : Sun Jan 31 19:16:31 2021
Timers Off: Sun Jan 31 19:16:32 2021

Wall Time:        0.40 seconds

                                                       Time (seconds)
Module                                       User      System        Wall        Calls
Total PK formation time             :      0.017u      0.000s      0.004w      1 calls
HF: Form core H                     :      0.000u      0.000s      0.000w      1 calls
HF: Form S/X                        :      0.000u      0.000s      0.000w      1 calls
HF: Guess                           :      0.000u      0.000s      0.000w      1 calls
HF: Form G                          :      0.000u      0.000s      0.000w      2 calls
JK: D                               :      0.000u      0.000s      0.000w      2 calls
JK: USO2AO                          :      0.000u      0.000s      0.000w      2 calls
JK: JK                              :      0.000u      0.000s      0.000w      2 calls
PK computes JK                      :      0.000u      0.000s      0.000w      2 calls
JK: AO2USO                          :      0.000u      0.000s      0.000w      2 calls
HF: Form F                          :      0.000u      0.000s      0.000w      2 calls
HF: DIIS                            :      0.000u      0.000s      0.001w      2 calls
DIISManager::add_entry              :      0.000u      0.000s      0.000w      2 calls
DIISManager::extrapolate            :      0.000u      0.000s      0.000w      2 calls
bMatrix setup                       :      0.000u      0.000s      0.000w      2 calls
bMatrix pseudoinverse               :      0.000u      0.000s      0.000w      2 calls
New vector                          :      0.000u      0.000s      0.000w      2 calls
HF: Form C                          :      0.000u      0.000s      0.000w      2 calls
HF: Form D                          :      0.000u      0.000s      0.000w      2 calls

--------------------------------------------------------------------------------------
Total PK formation time             :      0.017u      0.000s      0.004w      1 calls
HF: Form core H                     :      0.000u      0.000s      0.000w      1 calls
HF: Form S/X                        :      0.000u      0.000s      0.000w      1 calls
HF: Guess                           :      0.000u      0.000s      0.000w      1 calls
HF: Form G                          :      0.000u      0.000s      0.000w      2 calls
| JK: D                             :      0.000u      0.000s      0.000w      2 calls
| JK: USO2AO                        :      0.000u      0.000s      0.000w      2 calls
| JK: JK                            :      0.000u      0.000s      0.000w      2 calls
| | PK computes JK                  :      0.000u      0.000s      0.000w      2 calls
| JK: AO2USO                        :      0.000u      0.000s      0.000w      2 calls
HF: Form F                          :      0.000u      0.000s      0.000w      2 calls
HF: DIIS                            :      0.000u      0.000s      0.001w      2 calls
| DIISManager::add_entry            :      0.000u      0.000s      0.000w      2 calls
| DIISManager::extrapolate          :      0.000u      0.000s      0.000w      2 calls
| | bMatrix setup                   :      0.000u      0.000s      0.000w      2 calls
| | bMatrix pseudoinverse           :      0.000u      0.000s      0.000w      2 calls
| | New vector                      :      0.000u      0.000s      0.000w      2 calls
HF: Form C                          :      0.000u      0.000s      0.000w      2 calls
HF: Form D                          :      0.000u      0.000s      0.000w      2 calls

**************************************************************************************

Host: chem-mcdaniel-u01

Timers On : Sun Jan 31 19:28:14 2021
Timers Off: Sun Jan 31 19:28:15 2021

Wall Time:        0.35 seconds

                                                       Time (seconds)
Module                                       User      System        Wall        Calls

--------------------------------------------------------------------------------------

**************************************************************************************

Host: chem-mcdaniel-u01

Timers On : Sun Jan 31 19:34:11 2021
Timers Off: Sun Jan 31 19:34:11 2021

Wall Time:        0.27 seconds

                                                       Time (seconds)
Module                                       User      System        Wall        Calls

--------------------------------------------------------------------------------------

**************************************************************************************

Host: chem-mcdaniel-u01

Timers On : Sun Jan 31 19:34:24 2021
Timers Off: Sun Jan 31 19:34:24 2021

Wall Time:        0.21 seconds

                                                       Time (seconds)
Module                                       User      System        Wall        Calls

--------------------------------------------------------------------------------------

**************************************************************************************

Host: chem-mcdaniel-u01

Timers On : Sun Jan 31 19:37:45 2021
Timers Off: Sun Jan 31 19:37:45 2021

Wall Time:        0.21 seconds

                                                       Time (seconds)
Module                                       User      System        Wall        Calls

--------------------------------------------------------------------------------------

**************************************************************************************

Host: chem-mcdaniel-u01

Timers On : Sun Jan 31 19:38:59 2021
Timers Off: Sun Jan 31 19:38:59 2021

Wall Time:        0.21 seconds

                                                       Time (seconds)
Module                                       User      System        Wall        Calls

--------------------------------------------------------------------------------------

**************************************************************************************

Host: chem-mcdaniel-u01

Timers On : Sun Jan 31 19:39:11 2021
Timers Off: Sun Jan 31 19:39:11 2021

Wall Time:        0.21 seconds

                                                       Time (seconds)
Module                                       User      System        Wall        Calls

--------------------------------------------------------------------------------------

**************************************************************************************

Host: chem-mcdaniel-u01

Timers On : Sun Jan 31 19:41:04 2021
Timers Off: Sun Jan 31 19:41:04 2021

Wall Time:        0.21 seconds

                                                       Time (seconds)
Module                                       User      System        Wall        Calls

--------------------------------------------------------------------------------------

**************************************************************************************

Host: chem-mcdaniel-u01

Timers On : Sun Jan 31 19:41:13 2021
Timers Off: Sun Jan 31 19:41:13 2021

Wall Time:        0.21 seconds

                                                       Time (seconds)
Module                                       User      System        Wall        Calls

--------------------------------------------------------------------------------------

**************************************************************************************

Host: chem-mcdaniel-u01

Timers On : Sun Jan 31 19:41:32 2021
Timers Off: Sun Jan 31 19:41:32 2021

Wall Time:        0.21 seconds

                                                       Time (seconds)
Module                                       User      System        Wall        Calls

--------------------------------------------------------------------------------------

**************************************************************************************

Host: chem-mcdaniel-u01

Timers On : Sun Jan 31 19:42:19 2021
Timers Off: Sun Jan 31 19:42:19 2021

Wall Time:        0.21 seconds

                                                       Time (seconds)
Module                                       User      System        Wall        Calls

--------------------------------------------------------------------------------------

**************************************************************************************

Host: chem-mcdaniel-u01

Timers On : Sun Jan 31 19:42:59 2021
Timers Off: Sun Jan 31 19:42:59 2021

Wall Time:        0.21 seconds

                                                       Time (seconds)
Module                                       User      System        Wall        Calls

--------------------------------------------------------------------------------------

**************************************************************************************

Host: chem-mcdaniel-u01

Timers On : Sun Jan 31 19:43:03 2021
Timers Off: Sun Jan 31 19:43:04 2021

Wall Time:        0.21 seconds

                                                       Time (seconds)
Module                                       User      System        Wall        Calls

--------------------------------------------------------------------------------------

**************************************************************************************

Host: chem-mcdaniel-u01

Timers On : Sun Jan 31 19:43:30 2021
Timers Off: Sun Jan 31 19:43:30 2021

Wall Time:        0.21 seconds

                                                       Time (seconds)
Module                                       User      System        Wall        Calls

--------------------------------------------------------------------------------------

**************************************************************************************

Host: chem-mcdaniel-u01

Timers On : Sun Jan 31 19:44:00 2021
Timers Off: Sun Jan 31 19:44:01 2021

Wall Time:        0.15 seconds

                                                       Time (seconds)
Module                                       User      System        Wall        Calls

--------------------------------------------------------------------------------------

**************************************************************************************

Host: chem-mcdaniel-u01

Timers On : Sun Jan 31 19:44:19 2021
Timers Off: Sun Jan 31 19:44:19 2021

Wall Time:        0.20 seconds

                                                       Time (seconds)
Module                                       User      System        Wall        Calls

--------------------------------------------------------------------------------------

**************************************************************************************

Host: chem-mcdaniel-u01

Timers On : Sun Jan 31 19:45:02 2021
Timers Off: Sun Jan 31 19:45:02 2021

Wall Time:        0.21 seconds

                                                       Time (seconds)
Module                                       User      System        Wall        Calls

--------------------------------------------------------------------------------------

**************************************************************************************

Host: chem-mcdaniel-u01

Timers On : Sun Jan 31 19:45:34 2021
Timers Off: Sun Jan 31 19:45:34 2021

Wall Time:        0.20 seconds

                                                       Time (seconds)
Module                                       User      System        Wall        Calls

--------------------------------------------------------------------------------------

**************************************************************************************

Host: chem-mcdaniel-u01

Timers On : Sun Jan 31 19:46:59 2021
Timers Off: Sun Jan 31 19:46:59 2021

Wall Time:        0.20 seconds

                                                       Time (seconds)
Module                                       User      System        Wall        Calls

--------------------------------------------------------------------------------------

**************************************************************************************

Host: chem-mcdaniel-u01

Timers On : Sun Jan 31 19:48:00 2021
Timers Off: Sun Jan 31 19:48:00 2021

Wall Time:        0.20 seconds

                                                       Time (seconds)
Module                                       User      System        Wall        Calls

--------------------------------------------------------------------------------------

**************************************************************************************

Host: chem-mcdaniel-u01

Timers On : Sun Jan 31 19:49:03 2021
Timers Off: Sun Jan 31 19:49:03 2021

Wall Time:        0.21 seconds

                                                       Time (seconds)
Module                                       User      System        Wall        Calls

--------------------------------------------------------------------------------------

**************************************************************************************

Host: chem-mcdaniel-u01

Timers On : Sun Jan 31 19:49:11 2021
Timers Off: Sun Jan 31 19:49:11 2021

Wall Time:        0.21 seconds

                                                       Time (seconds)
Module                                       User      System        Wall        Calls

--------------------------------------------------------------------------------------

**************************************************************************************

Host: chem-mcdaniel-u01

Timers On : Sun Jan 31 19:49:25 2021
Timers Off: Sun Jan 31 19:49:25 2021

Wall Time:        0.20 seconds

                                                       Time (seconds)
Module                                       User      System        Wall        Calls

--------------------------------------------------------------------------------------

**************************************************************************************

Host: chem-mcdaniel-u01

Timers On : Sun Jan 31 19:49:54 2021
Timers Off: Sun Jan 31 19:49:54 2021

Wall Time:        0.20 seconds

                                                       Time (seconds)
Module                                       User      System        Wall        Calls

--------------------------------------------------------------------------------------

**************************************************************************************

Host: chem-mcdaniel-u01

Timers On : Sun Jan 31 19:50:04 2021
Timers Off: Sun Jan 31 19:50:05 2021

Wall Time:        0.20 seconds

                                                       Time (seconds)
Module                                       User      System        Wall        Calls

--------------------------------------------------------------------------------------

**************************************************************************************

Host: chem-mcdaniel-u01

[...]

--------------------------------------------------------------------------------------

**************************************************************************************

Host: chem-mcdaniel-u01

Timers On : Fri Feb 12 22:03:12 2021
Timers Off: Fri Feb 12 22:03:12 2021

Wall Time:        0.21 seconds

                                                       Time (seconds)
Module                                       User      System        Wall        Calls

--------------------------------------------------------------------------------------

**************************************************************************************

Host: chem-mcdaniel-u01

Timers On : Fri Feb 12 22:03:38 2021
Timers Off: Fri Feb 12 22:03:38 2021

Wall Time:        0.21 seconds

                                                       Time (seconds)
Module                                       User      System        Wall        Calls

--------------------------------------------------------------------------------------

**************************************************************************************

Host: chem-mcdaniel-u01

Timers On : Fri Feb 12 22:03:49 2021
Timers Off: Fri Feb 12 22:03:49 2021

Wall Time:        0.21 seconds

                                                       Time (seconds)
Module                                       User      System        Wall        Calls

--------------------------------------------------------------------------------------

**************************************************************************************

Host: chem-mcdaniel-u01

Timers On : Fri Feb 12 22:05:16 2021
Timers Off: Fri Feb 12 22:05:17 2021

Wall Time:        0.22 seconds

                                                       Time (seconds)
Module                                       User      System        Wall        Calls

--------------------------------------------------------------------------------------

**************************************************************************************

Host: chem-mcdaniel-u01

Timers On : Fri Feb 12 22:05:34 2021
Timers Off: Fri Feb 12 22:05:34 2021

Wall Time:        0.55 seconds

                                                       Time (seconds)
Module                                       User      System        Wall        Calls
Total PK formation time             :      0.067u      0.000s      0.041w      1 calls
HF: Form core H                     :      0.000u      0.000s      0.001w      1 calls
HF: Form S/X                        :      0.000u      0.000s      0.001w      1 calls
HF: Guess                           :      0.200u      0.000s      0.129w      1 calls
SAD Guess                           :      0.183u      0.000s      0.121w      1 calls
HF: Form G                          :      0.000u      0.000s      0.000w      8 calls
JK: D                               :      0.000u      0.000s      0.000w      8 calls
JK: USO2AO                          :      0.000u      0.000s      0.000w      8 calls
JK: JK                              :      0.000u      0.000s      0.000w      8 calls
PK computes JK                      :      0.000u      0.000s      0.000w      8 calls
JK: AO2USO                          :      0.000u      0.000s      0.000w      8 calls
HF: Form F                          :      0.000u      0.000s      0.000w      8 calls
HF: Form D                          :      0.000u      0.000s      0.000w      8 calls
HF: DIIS                            :      0.000u      0.000s      0.002w      7 calls
DIISManager::add_entry              :      0.000u      0.000s      0.000w      7 calls
DIISManager::extrapolate            :      0.000u      0.000s      0.000w      7 calls
bMatrix setup                       :      0.000u      0.000s      0.000w      7 calls
bMatrix pseudoinverse               :      0.000u      0.000s      0.000w      7 calls
New vector                          :      0.000u      0.000s      0.000w      7 calls
HF: Form C                          :      0.000u      0.000s      0.000w      7 calls

--------------------------------------------------------------------------------------
Total PK formation time             :      0.067u      0.000s      0.041w      1 calls
HF: Form core H                     :      0.000u      0.000s      0.001w      1 calls
HF: Form S/X                        :      0.000u      0.000s      0.001w      1 calls
HF: Guess                           :      0.200u      0.000s      0.129w      1 calls
| SAD Guess                         :      0.183u      0.000s      0.121w      1 calls
HF: Form G                          :      0.000u      0.000s      0.000w      8 calls
| JK: D                             :      0.000u      0.000s      0.000w      8 calls
| JK: USO2AO                        :      0.000u      0.000s      0.000w      8 calls
| JK: JK                            :      0.000u      0.000s      0.000w      8 calls
| | PK computes JK                  :      0.000u      0.000s      0.000w      8 calls
| JK: AO2USO                        :      0.000u      0.000s      0.000w      8 calls
HF: Form F                          :      0.000u      0.000s      0.000w      8 calls
HF: Form D                          :      0.000u      0.000s      0.000w      8 calls
HF: DIIS                            :      0.000u      0.000s      0.002w      7 calls
| DIISManager::add_entry            :      0.000u      0.000s      0.000w      7 calls
| DIISManager::extrapolate          :      0.000u      0.000s      0.000w      7 calls
| | bMatrix setup                   :      0.000u      0.000s      0.000w      7 calls
| | bMatrix pseudoinverse           :      0.000u      0.000s      0.000w      7 calls
| | New vector                      :      0.000u      0.000s      0.000w      7 calls
HF: Form C                          :      0.000u      0.000s      0.000w      7 calls

**************************************************************************************

Host: chem-mcdaniel-u01

Timers On : Fri Feb 12 22:06:04 2021
Timers Off: Fri Feb 12 22:06:05 2021

Wall Time:        0.51 seconds

                                                       Time (seconds)
Module                                       User      System        Wall        Calls
Total PK formation time             :      0.033u      0.000s      0.024w      1 calls
HF: Form core H                     :      0.000u      0.000s      0.001w      1 calls
HF: Form S/X                        :      0.000u      0.000s      0.000w      1 calls
HF: Guess                           :      0.200u      0.000s      0.124w      1 calls
SAD Guess                           :      0.183u      0.000s      0.115w      1 calls
HF: Form G                          :      0.000u      0.000s      0.000w      5 calls
JK: D                               :      0.000u      0.000s      0.000w      5 calls
JK: USO2AO                          :      0.000u      0.000s      0.000w      5 calls
JK: JK                              :      0.000u      0.000s      0.000w      5 calls
PK computes JK                      :      0.000u      0.000s      0.000w      5 calls
JK: AO2USO                          :      0.000u      0.000s      0.000w      5 calls
HF: Form F                          :      0.000u      0.000s      0.000w      5 calls
HF: Form D                          :      0.000u      0.000s      0.000w      5 calls
HF: DIIS                            :      0.000u      0.000s      0.001w      4 calls
DIISManager::add_entry              :      0.000u      0.000s      0.000w      4 calls
DIISManager::extrapolate            :      0.000u      0.000s      0.000w      4 calls
bMatrix setup                       :      0.000u      0.000s      0.000w      4 calls
bMatrix pseudoinverse               :      0.000u      0.000s      0.000w      4 calls
New vector                          :      0.000u      0.000s      0.000w      4 calls
HF: Form C                          :      0.000u      0.000s      0.000w      4 calls

--------------------------------------------------------------------------------------
Total PK formation time             :      0.033u      0.000s      0.024w      1 calls
HF: Form core H                     :      0.000u      0.000s      0.001w      1 calls
HF: Form S/X                        :      0.000u      0.000s      0.000w      1 calls
HF: Guess                           :      0.200u      0.000s      0.124w      1 calls
| SAD Guess                         :      0.183u      0.000s      0.115w      1 calls
HF: Form G                          :      0.000u      0.000s      0.000w      5 calls
| JK: D                             :      0.000u      0.000s      0.000w      5 calls
| JK: USO2AO                        :      0.000u      0.000s      0.000w      5 calls
| JK: JK                            :      0.000u      0.000s      0.000w      5 calls
| | PK computes JK                  :      0.000u      0.000s      0.000w      5 calls
| JK: AO2USO                        :      0.000u      0.000s      0.000w      5 calls
HF: Form F                          :      0.000u      0.000s      0.000w      5 calls
HF: Form D                          :      0.000u      0.000s      0.000w      5 calls
HF: DIIS                            :      0.000u      0.000s      0.001w      4 calls
| DIISManager::add_entry            :      0.000u      0.000s      0.000w      4 calls
| DIISManager::extrapolate          :      0.000u      0.000s      0.000w      4 calls
| | bMatrix setup                   :      0.000u      0.000s      0.000w      4 calls
| | bMatrix pseudoinverse           :      0.000u      0.000s      0.000w      4 calls
| | New vector                      :      0.000u      0.000s      0.000w      4 calls
HF: Form C                          :      0.000u      0.000s      0.000w      4 calls

**************************************************************************************

Host: chem-mcdaniel-u01

Timers On : Fri Feb 12 22:31:18 2021
Timers Off: Fri Feb 12 22:31:18 2021

Wall Time:        0.21 seconds

                                                       Time (seconds)
Module                                       User      System        Wall        Calls

--------------------------------------------------------------------------------------

**************************************************************************************

Host: chem-mcdaniel-u01

Timers On : Fri Feb 12 22:32:27 2021
Timers Off: Fri Feb 12 22:32:27 2021

Wall Time:        0.21 seconds

                                                       Time (seconds)
Module                                       User      System        Wall        Calls

--------------------------------------------------------------------------------------

**************************************************************************************

Host: chem-mcdaniel-u01

Timers On : Fri Feb 12 22:34:37 2021
Timers Off: Fri Feb 12 22:34:37 2021

Wall Time:        0.21 seconds

                                                       Time (seconds)
Module                                       User      System        Wall        Calls

--------------------------------------------------------------------------------------

**************************************************************************************

Host: chem-mcdaniel-u01

Timers On : Fri Feb 12 22:35:13 2021
Timers Off: Fri Feb 12 22:35:14 2021

Wall Time:        0.21 seconds

                                                       Time (seconds)
Module                                       User      System        Wall        Calls

--------------------------------------------------------------------------------------

**************************************************************************************

Host: chem-mcdaniel-u01

Timers On : Fri Feb 12 22:35:34 2021
Timers Off: Fri Feb 12 22:35:34 2021

Wall Time:        0.21 seconds

                                                       Time (seconds)
Module                                       User      System        Wall        Calls

--------------------------------------------------------------------------------------

**************************************************************************************

Host: chem-mcdaniel-u01

Timers On : Fri Feb 12 22:46:30 2021
Timers Off: Fri Feb 12 22:46:31 2021

Wall Time:        0.20 seconds

                                                       Time (seconds)
Module                                       User      System        Wall        Calls

--------------------------------------------------------------------------------------

**************************************************************************************

Host: chem-mcdaniel-u01

Timers On : Fri Feb 12 22:46:57 2021
Timers Off: Fri Feb 12 22:46:57 2021

Wall Time:        0.21 seconds

                                                       Time (seconds)
Module                                       User      System        Wall        Calls

--------------------------------------------------------------------------------------

**************************************************************************************

Host: chem-mcdaniel-u01

Timers On : Fri Feb 12 22:48:08 2021
Timers Off: Fri Feb 12 22:48:08 2021

Wall Time:        0.21 seconds

                                                       Time (seconds)
Module                                       User      System        Wall        Calls

--------------------------------------------------------------------------------------

**************************************************************************************

Host: chem-mcdaniel-u01

Timers On : Fri Feb 12 22:48:57 2021
Timers Off: Fri Feb 12 22:48:57 2021

Wall Time:        0.21 seconds

                                                       Time (seconds)
Module                                       User      System        Wall        Calls

--------------------------------------------------------------------------------------

**************************************************************************************

Host: chem-mcdaniel-u01

Timers On : Fri Feb 12 22:52:37 2021
Timers Off: Fri Feb 12 22:52:37 2021

Wall Time:        0.21 seconds

                                                       Time (seconds)
Module                                       User      System        Wall        Calls

--------------------------------------------------------------------------------------

**************************************************************************************

Host: chem-mcdaniel-u01

Timers On : Fri Feb 12 22:53:15 2021
Timers Off: Fri Feb 12 22:53:15 2021

Wall Time:        0.47 seconds

                                                       Time (seconds)
Module                                       User      System        Wall        Calls
Total PK formation time             :      0.033u      0.000s      0.020w      1 calls
HF: Form core H                     :      0.000u      0.000s      0.001w      1 calls
HF: Form S/X                        :      0.000u      0.000s      0.000w      1 calls
HF: Guess                           :      0.200u      0.000s      0.122w      1 calls
SAD Guess                           :      0.183u      0.000s      0.113w      1 calls
HF: Form G                          :      0.000u      0.000s      0.000w      5 calls
JK: D                               :      0.000u      0.000s      0.000w      5 calls
JK: USO2AO                          :      0.000u      0.000s      0.000w      5 calls
JK: JK                              :      0.000u      0.000s      0.000w      5 calls
PK computes JK                      :      0.000u      0.000s      0.000w      5 calls
JK: AO2USO                          :      0.000u      0.000s      0.000w      5 calls
HF: Form F                          :      0.000u      0.000s      0.000w      5 calls
HF: Form D                          :      0.000u      0.000s      0.000w      5 calls
HF: DIIS                            :      0.017u      0.000s      0.001w      4 calls
DIISManager::add_entry              :      0.017u      0.000s      0.000w      4 calls
DIISManager::extrapolate            :      0.000u      0.000s      0.000w      4 calls
bMatrix setup                       :      0.000u      0.000s      0.000w      4 calls
bMatrix pseudoinverse               :      0.000u      0.000s      0.000w      4 calls
New vector                          :      0.000u      0.000s      0.000w      4 calls
HF: Form C                          :      0.000u      0.000s      0.000w      4 calls

--------------------------------------------------------------------------------------
Total PK formation time             :      0.033u      0.000s      0.020w      1 calls
HF: Form core H                     :      0.000u      0.000s      0.001w      1 calls
HF: Form S/X                        :      0.000u      0.000s      0.000w      1 calls
HF: Guess                           :      0.200u      0.000s      0.122w      1 calls
| SAD Guess                         :      0.183u      0.000s      0.113w      1 calls
HF: Form G                          :      0.000u      0.000s      0.000w      5 calls
| JK: D                             :      0.000u      0.000s      0.000w      5 calls
| JK: USO2AO                        :      0.000u      0.000s      0.000w      5 calls
| JK: JK                            :      0.000u      0.000s      0.000w      5 calls
| | PK computes JK                  :      0.000u      0.000s      0.000w      5 calls
| JK: AO2USO                        :      0.000u      0.000s      0.000w      5 calls
HF: Form F                          :      0.000u      0.000s      0.000w      5 calls
HF: Form D                          :      0.000u      0.000s      0.000w      5 calls
HF: DIIS                            :      0.017u      0.000s      0.001w      4 calls
| DIISManager::add_entry            :      0.017u      0.000s      0.000w      4 calls
| DIISManager::extrapolate          :      0.000u      0.000s      0.000w      4 calls
| | bMatrix setup                   :      0.000u      0.000s      0.000w      4 calls
| | bMatrix pseudoinverse           :      0.000u      0.000s      0.000w      4 calls
| | New vector                      :      0.000u      0.000s      0.000w      4 calls
HF: Form C                          :      0.000u      0.000s      0.000w      4 calls

**************************************************************************************

Host: chem-mcdaniel-u01

Timers On : Fri Feb 12 22:54:16 2021
Timers Off: Fri Feb 12 22:54:16 2021

Wall Time:        0.21 seconds

                                                       Time (seconds)
Module                                       User      System        Wall        Calls

--------------------------------------------------------------------------------------

**************************************************************************************

Host: chem-mcdaniel-u01

Timers On : Fri Feb 12 22:56:09 2021
Timers Off: Fri Feb 12 22:56:09 2021

Wall Time:        0.21 seconds

                                                       Time (seconds)
Module                                       User      System        Wall        Calls

--------------------------------------------------------------------------------------

**************************************************************************************

Host: chem-mcdaniel-u01

Timers On : Fri Feb 12 23:03:41 2021
Timers Off: Fri Feb 12 23:03:41 2021

Wall Time:        0.21 seconds

                                                       Time (seconds)
Module                                       User      System        Wall        Calls

--------------------------------------------------------------------------------------

**************************************************************************************
